                               Psi4 1.1 release

  ==> Input File <==

--------------------------------------------------------------------------
# -*- mode: python -*-

molecule {
    Na 0.000 0.000 0.000
    Cl 0.000 0.000 2.000
}

set {
    reference rhf
    scf_type direct
    basis jun-cc-pvtz
    freeze_core false
}

optimize('ccsd')
--------------------------------------------------------------------------

    Molecular point group: c2v
  Charge       = 0
  Multiplicity = 1
  Basis Set: JUN-CC-PVTZ
    Blend: JUN-CC-PVTZ
  Basis Set: (JUN-CC-PVTZ AUX)
    Blend: DEF2-QZVPP-JKFIT + JUN-CC-PVTZ-JKFIT
  @RHF Final Energy:  -621.42176041946016
    Total Energy =                       -621.4217604194602700
      * MP2 total energy                      = -621.672794455728194
      * CCSD total energy                     = -621.687496940317828
    Molecular point group: c2v
  Basis Set: JUN-CC-PVTZ
    Blend: JUN-CC-PVTZ
  Basis Set: (JUN-CC-PVTZ AUX)
    Blend: DEF2-QZVPP-JKFIT + JUN-CC-PVTZ-JKFIT
  @RHF Final Energy:  -621.44438811200689
    Total Energy =                       -621.4443881120068909
      * MP2 total energy                      = -621.694144936149655
      * CCSD total energy                     = -621.708714398814436
  Basis Set: JUN-CC-PVTZ
    Blend: JUN-CC-PVTZ
  Basis Set: (JUN-CC-PVTZ AUX)
    Blend: DEF2-QZVPP-JKFIT + JUN-CC-PVTZ-JKFIT
  @RHF Final Energy:  -621.45198093940439
    Total Energy =                       -621.4519809394043932
      * MP2 total energy                      = -621.701245255217373
      * CCSD total energy                     = -621.715743445055637
  @RHF Final Energy:  -621.45390265874187
    Total Energy =                       -621.4539026587419812
      * MP2 total energy                      = -621.703094291413208
      * CCSD total energy                     = -621.717557884500479
    Blend: JUN-CC-PVTZ
  Basis Set: (JUN-CC-PVTZ AUX)
    Blend: DEF2-QZVPP-JKFIT + JUN-CC-PVTZ-JKFIT
  @RHF Final Energy:  -621.45454866693285
    Total Energy =                       -621.4545486669328511
      * MP2 total energy                      = -621.703753337254625
      * CCSD total energy                     = -621.718190557968342
  Basis Set: JUN-CC-PVTZ
    Blend: JUN-CC-PVTZ
  Basis Set: (JUN-CC-PVTZ AUX)
    Blend: DEF2-QZVPP-JKFIT + JUN-CC-PVTZ-JKFIT
  @RHF Final Energy:  -621.45463183018910
    Total Energy =                       -621.4546318301891006
      * MP2 total energy                      = -621.703855418818421
      * CCSD total energy                     = -621.718280370999423
  Charge       = 0
  Multiplicity = 1
  Basis Set: JUN-CC-PVTZ
    Blend: JUN-CC-PVTZ
  Basis Set: (JUN-CC-PVTZ AUX)
    Blend: DEF2-QZVPP-JKFIT + JUN-CC-PVTZ-JKFIT

    Orbital Energies (a.u.)
    -----------------------

    Doubly Occupied:

       1A1  -104.702886     2A1   -40.504768     3A1   -10.427867
       4A1    -7.894034     1B1    -7.893803     1B2    -7.893803
       5A1    -2.825399     2B2    -1.548342     2B1    -1.548342
       6A1    -1.547631     7A1    -0.939994     8A1    -0.367701
       3B1    -0.351334     3B2    -0.351334

  @RHF Final Energy:  -621.45463328801941

   => Energetics <=

    Nuclear Repulsion Energy =             41.1839013450404821
    One-Electron Energy =                -947.6825888508346907
    Two-Electron Energy =                 285.0440542177748284
    DFT Exchange-Correlation Energy =       0.0000000000000000
    Empirical Dispersion Energy =           0.0000000000000000
    PCM Polarization Energy =               0.0000000000000000
    EFP Energy =                            0.0000000000000000
    Total Energy =                       -621.4546332880194086
      * MP2 total energy                      = -621.703861850274848
      * CCSD total energy                     = -621.718284042168307

  Mulliken Charges: (a.u.)
   Center  Symbol    Alpha    Beta     Spin     Total
       1    NA     5.24029  5.24029  0.00000  0.51942
       2    CL     8.75971  8.75971  0.00000 -0.51942

   Total alpha = 14.00000, Total beta = 14.00000, Total charge =  0.00000

    Molecular point group: c2v

  -Total gradient:
     Atom            X                  Y                   Z
    ------   -----------------  -----------------  -----------------
       1        0.000000000000     0.000000000000     0.000076876453
       2        0.000000000000     0.000000000000    -0.000076876428

  **** Optimization is complete! (in 7 steps) ****
    Final optimized geometry and variables:
    Molecular point group: c2v

    Geometry (in Angstrom), charge = 0, multiplicity = 1:

    NA           0.000000000000     0.000000000000    -1.449701489552
    CL           0.000000000000     0.000000000000     0.953085394995

*** Psi4 exiting successfully. Buy a developer a beer!
