                               Psi4 1.1 release

  ==> Input File <==

--------------------------------------------------------------------------
# -*- mode: python -*-

from __future__ import print_function

memory 2 gb

min_distance = 1.449701489552 + 0.953085394995
molecule dimer {
1 1
Na           0.000000000000     0.000000000000     0.000
--
-1 1
Cl           0.000000000000     0.000000000000     r

symmetry c1
units angstrom
no_reorient
no_com
}
dimer.r = min_distance

set {
    basis def2-svp
}

energy('ccsd(t)', bsse_type='cp')

print_variables()
--------------------------------------------------------------------------

    Molecular point group: c1
  Charge       = -1
  Multiplicity = 1
  Basis Set: DEF2-SVP
    Blend: DEF2-SVP
  @RHF Final Energy:  -459.39157384033052
    Total Energy =                       -459.3915738403304658
      * MP2 total energy                      = -459.536909417397737
      * CCSD total energy                     = -459.547990201470554
      * CCSD(T) total energy                  = -459.550072328628687
    Molecular point group: c1
  Multiplicity = 1
  Basis Set: DEF2-SVP
    Blend: DEF2-SVP
  @RHF Final Energy:  -161.61356978978125
    Total Energy =                       -161.6135697897812520
      * MP2 total energy                      = -161.614269690645301
      * CCSD total energy                     = -161.614229998495489
      * CCSD(T) total energy                  = -161.614236810611942
    Molecular point group: c1

    Geometry (in Angstrom), charge = 0, multiplicity = 1:

       Center              X                  Y                   Z               Mass
    ------------   -----------------  -----------------  -----------------  -----------------
          NA          0.000000000000     0.000000000000     0.000000000000    22.989769280870
          CL          0.000000000000     0.000000000000     2.402786884547    34.968852682000

  Charge       = 0
  Multiplicity = 1
  Basis Set: DEF2-SVP
    Blend: DEF2-SVP

    Orbital Energies (a.u.)
    -----------------------

    Doubly Occupied:

       1A   -104.644126     2A    -40.503914     3A    -10.404429
       4A     -7.878391     5A     -7.877751     6A     -7.877751
       7A     -2.827438     8A     -1.551624     9A     -1.551624
      10A     -1.549989    11A     -0.919631    12A     -0.351080
      13A     -0.335375    14A     -0.335375

  @RHF Final Energy:  -621.22209725975517

   => Energetics <=

    Nuclear Repulsion Energy =             41.1839013450359772
    One-Electron Energy =                -947.5950025192806834
    Two-Electron Energy =                 285.1890039144895468
    DFT Exchange-Correlation Energy =       0.0000000000000000
    Empirical Dispersion Energy =           0.0000000000000000
    PCM Polarization Energy =               0.0000000000000000
    EFP Energy =                            0.0000000000000000
    Total Energy =                       -621.2220972597551736
      * MP2 total energy                      = -621.369504279197713
      * CCSD total energy                     = -621.380484002348226
      * CCSD(T) total energy                  = -621.382812854901999
*** Psi4 exiting successfully. Buy a developer a beer!
