                               Psi4 1.1 release

  ==> Input File <==

--------------------------------------------------------------------------
# -*- mode: python -*-

from __future__ import print_function

memory 2 gb

min_distance = 1.449701489552 + 0.953085394995
molecule dimer {
1 1
Na           0.000000000000     0.000000000000     0.000
--
-1 1
Cl           0.000000000000     0.000000000000     r

symmetry c1
units angstrom
no_reorient
no_com
}
dimer.r = min_distance

set {
    basis def2-svp
    df_basis_sapt def2-svp-ri
}

energy('sapt0-ct')

print_variables()
--------------------------------------------------------------------------

  //              Dimer HF             //
    Molecular point group: c1
  Charge       = 0
  Multiplicity = 1
  Basis Set: DEF2-SVP
    Blend: DEF2-SVP
  Basis Set: (DEF2-SVP AUX)
    Blend: DEF2-SVP-JKFIT
  @DF-RHF Final Energy:  -621.22204974442332
    Total Energy =                       -621.2220497444234297
  //     Monomer A HF (Dimer Basis)    //
    Molecular point group: c1
  Basis Set: DEF2-SVP
    Blend: DEF2-SVP
  Basis Set: (DEF2-SVP AUX)
    Blend: DEF2-SVP-JKFIT
  @DF-RHF Final Energy:  -161.61356833150131
    Total Energy =                       -161.6135683315013125
  //     Monomer B HF (Dimer Basis)    //
  Basis Set: DEF2-SVP
    Blend: DEF2-SVP
  Basis Set: (DEF2-SVP AUX)
    Blend: DEF2-SVP-JKFIT
  @DF-RHF Final Energy:  -459.39155630944276
    Total Energy =                       -459.3915563094427625
  //    Monomer A HF (Monomer Basis)   //
  Multiplicity = 1
  Basis Set: DEF2-SVP
    Blend: DEF2-SVP
  Basis Set: (DEF2-SVP AUX)
    Blend: DEF2-SVP-JKFIT
  @DF-RHF Final Energy:  -161.61342838579793
    Total Energy =                       -161.6134283857979312
  //    Monomer B HF (Monomer Basis)   //
    Molecular point group: c1
    Geometry (in Angstrom), charge = -1, multiplicity = 1:

       Center              X                  Y                   Z               Mass
    ------------   -----------------  -----------------  -----------------  -----------------
          CL          0.000000000000     0.000000000000     2.402786884547    34.968852682000

  Charge       = -1
  Multiplicity = 1
  Basis Set: DEF2-SVP
    Blend: DEF2-SVP
  Basis Set: (DEF2-SVP AUX)
    Blend: DEF2-SVP-JKFIT

    Orbital Energies (a.u.)
    -----------------------

    Doubly Occupied:

       1A   -104.372934     2A    -10.132866     3A     -7.607021
       4A     -7.607021     5A     -7.607021     6A     -0.660698
       7A     -0.086947     8A     -0.086947     9A     -0.086947

  @DF-RHF Final Energy:  -459.37123184078843

   => Energetics <=

    Nuclear Repulsion Energy =              0.0000000000000000
    One-Electron Energy =                -642.2456622802201309
    Two-Electron Energy =                 182.8744304394317055
    DFT Exchange-Correlation Energy =       0.0000000000000000
    Empirical Dispersion Energy =           0.0000000000000000
    PCM Polarization Energy =               0.0000000000000000
    EFP Energy =                            0.0000000000000000
    Total Energy =                       -459.3712318407884254

    SAPT Results
  --------------------------------------------------------------------------------------------------------
    Electrostatics               -224.64733781 [mEh]    -140.96833863 [kcal/mol]    -589.81158543 [kJ/mol]
      Elst10,r                   -224.64733781 [mEh]    -140.96833863 [kcal/mol]    -589.81158543 [kJ/mol]

    Exchange                       20.29687434 [mEh]      12.73648147 [kcal/mol]      53.28944357 [kJ/mol]
      Exch10                       20.29687434 [mEh]      12.73648147 [kcal/mol]      53.28944357 [kJ/mol]
      Exch10(S^2)                  20.16276648 [mEh]      12.65232751 [kcal/mol]      52.93734339 [kJ/mol]

    Induction                     -33.03905436 [mEh]     -20.73232048 [kcal/mol]     -86.74403723 [kJ/mol]
      Ind20,r                      -8.47762641 [mEh]      -5.31979111 [kcal/mol]     -22.25800815 [kJ/mol]
      Exch-Ind20,r                  1.20472775 [mEh]       0.75597811 [kcal/mol]       3.16301271 [kJ/mol]
      delta HF,r (2)              -25.76615570 [mEh]     -16.16850748 [kcal/mol]     -67.64904179 [kJ/mol]

    Dispersion                     -0.16252195 [mEh]      -0.10198407 [kcal/mol]      -0.42670137 [kJ/mol]
      Disp20                       -0.16977171 [mEh]      -0.10653336 [kcal/mol]      -0.44573563 [kJ/mol]
      Exch-Disp20                   0.00724977 [mEh]       0.00454930 [kcal/mol]       0.01903426 [kJ/mol]
      Disp20 (SS)                  -0.08488586 [mEh]      -0.05326668 [kcal/mol]      -0.22286782 [kJ/mol]
      Disp20 (OS)                  -0.08488586 [mEh]      -0.05326668 [kcal/mol]      -0.22286782 [kJ/mol]
      Exch-Disp20 (SS)              0.00573295 [mEh]       0.00359748 [kcal/mol]       0.01505185 [kJ/mol]
      Exch-Disp20 (OS)              0.00151682 [mEh]       0.00095182 [kcal/mol]       0.00398241 [kJ/mol]

  Total HF                       -237.38951784 [mEh]    -148.96417764 [kcal/mol]    -623.26617908 [kJ/mol]
  Total SAPT0                    -237.55203978 [mEh]    -149.06616171 [kcal/mol]    -623.69288045 [kJ/mol]

  Special recipe for scaled SAPT0 (see Manual):
    Electrostatics sSAPT0        -224.64733781 [mEh]    -140.96833863 [kcal/mol]    -589.81158543 [kJ/mol]
    Exchange sSAPT0                20.29687434 [mEh]      12.73648147 [kcal/mol]      53.28944357 [kJ/mol]
    Induction sSAPT0              -33.01485524 [mEh]     -20.71713530 [kcal/mol]     -86.68050242 [kJ/mol]
    Dispersion sSAPT0              -0.16237632 [mEh]      -0.10189269 [kcal/mol]      -0.42631904 [kJ/mol]
  Total sSAPT0                   -237.52769503 [mEh]    -149.05088515 [kcal/mol]    -623.62896331 [kJ/mol]
  --------------------------------------------------------------------------------------------------------

*** Psi4 exiting successfully. Buy a developer a beer!
