                               Psi4 1.1 release

  ==> Input File <==

--------------------------------------------------------------------------
# -*- mode: python -*-

# V is +3
# Cl is -1
molecule {
    2 5
    V 0.000 0.000 0.000
    Cl 0.000 0.000 3.000
}

set {
    reference uhf
    basis def2-sv(p)
    scf_type direct
}

optimize('b97-d')
--------------------------------------------------------------------------

    Molecular point group: c2v
  Charge       = 2
  Multiplicity = 5
  Basis Set: DEF2-SV(P)
    Blend: DEF2-SV(P)
   => B97-D2P4 Composite Functional <=
  Basis Set: (DEF2-SV(P) AUX)
    Blend: DEF2-SV_P_-JKFIT
  @UKS Final Energy: -1403.30316233452299
    Total Energy =                      -1403.3031623345232219
    Molecular point group: c2v
  Basis Set: DEF2-SV(P)
    Blend: DEF2-SV(P)
   => B97-D2P4 Composite Functional <=
  Basis Set: DEF2-SV(P)
    Blend: DEF2-SV(P)
   => B97-D2P4 Composite Functional <=
  Basis Set: (DEF2-SV(P) AUX)
    Blend: DEF2-SV_P_-JKFIT
  @UKS Final Energy: -1403.30712656006176
    Total Energy =                      -1403.3071265600619881
  Basis Set: DEF2-SV(P)
    Blend: DEF2-SV(P)
   => B97-D2P4 Composite Functional <=
  Basis Set: DEF2-SV(P)
    Blend: DEF2-SV(P)
  @UKS Final Energy: -1403.31088266720917
    Total Energy =                      -1403.3108826672087162
    Blend: DEF2-SV(P)
   => B97-D2P4 Composite Functional <=
  Basis Set: DEF2-SV(P)
    Blend: DEF2-SV(P)
   => B97-D2P4 Composite Functional <=
  Basis Set: (DEF2-SV(P) AUX)
    Blend: DEF2-SV_P_-JKFIT
  @UKS Final Energy: -1403.31088196030373
    Total Energy =                      -1403.3108819603037318
  Basis Set: DEF2-SV(P)
    Blend: DEF2-SV(P)
   => B97-D2P4 Composite Functional <=
  Charge       = 2
  Multiplicity = 5
  Basis Set: DEF2-SV(P)
    Blend: DEF2-SV(P)
   => B97-D2P4 Composite Functional <=
  Basis Set: (DEF2-SV(P) AUX)
    Blend: DEF2-SV_P_-JKFIT

    Orbital Energies (a.u.)
    -----------------------

    Alpha Occupied:

       1A1  -196.174932     2A1  -101.155465     3A1   -22.441554
       1B1   -19.052297     1B2   -19.052119     4A1   -19.050171
       5A1    -9.752701     2B1    -7.604892     6A1    -7.589471
       2B2    -7.582875     7A1    -3.087484     3B1    -2.164457
       3B2    -2.163313     8A1    -2.158262     9A1    -1.239328
       4B1    -0.816014    10A1    -0.806874     4B2    -0.768016
      11A1    -0.739013     5B1    -0.733820     5B2    -0.727253

    Alpha Virtual:

       1A2    -0.704025    12A1    -0.689171    13A1    -0.543223
       6B1    -0.405927     6B2    -0.402729    14A1    -0.362037
      15A1    -0.241907    16A1     0.059667     7B1     0.061463
       7B2     0.077341    17A1     0.098842    18A1     0.139922
       2A2     0.157056     3A2     0.196173    19A1     0.197715
       8B1     0.233551     8B2     0.269674    20A1     0.346099
       9B1     0.392007     9B2     0.420786    21A1     0.719513

    Beta Occupied:

       1A1  -196.174407     2A1  -101.149176     3A1   -22.401474
       1B2   -19.022018     1B1   -19.021822     4A1   -19.019637
       5A1    -9.749735     2B1    -7.592271     6A1    -7.585703
       2B2    -7.578341     7A1    -2.971173     3B2    -2.050805
       3B1    -2.050540     8A1    -2.042668     9A1    -1.187743
      10A1    -0.785609     4B2    -0.740854

    Beta Virtual:

       4B1    -0.731262     1A2    -0.647792    11A1    -0.634283
      12A1    -0.629674     5B1    -0.619579     5B2    -0.618684
      13A1    -0.525218     6B2    -0.391441     6B1    -0.389115
      14A1    -0.336624    15A1    -0.237520    16A1     0.063168
       7B2     0.101001     7B1     0.101166    17A1     0.120284
      18A1     0.142184     2A2     0.148614     3A2     0.262314
      19A1     0.277163     8B2     0.283864     8B1     0.289348
      20A1     0.359523     9B1     0.417948     9B2     0.429221
      21A1     0.733472

    Final Occupation by Irrep:
             A1    A2    B1    B2
    DOCC [    10,    0,    3,    4 ]
    SOCC [     1,    0,    2,    1 ]

  Energy converged.

  @UKS Final Energy: -1403.31088408582036

   => Energetics <=

    Nuclear Repulsion Energy =             80.6306836983974904
    One-Electron Energy =               -2071.5492037328058359
    Two-Electron Energy =                 661.0012833922095297
    DFT Exchange-Correlation Energy =     -73.3934181620019217
    Empirical Dispersion Energy =          -0.0002292816198890
    PCM Polarization Energy =               0.0000000000000000
    EFP Energy =                            0.0000000000000000
    Total Energy =                      -1403.3108840858208168

  UHF NO Occupations:
  HONO-2 :    5 B2 1.0000000
  HONO-1 :   11 A1 1.0000000
  HONO-0 :    5 B1 1.0000000
  LUNO+0 :   12 A1 0.0055695
  LUNO+1 :   13 A1 0.0011750
  LUNO+2 :    6 B2 0.0002959
  LUNO+3 :    6 B1 0.0000781

Properties will be evaluated at   0.000000,   0.000000,   0.000000 Bohr

Properties computed using the SCF density matrix

  Nuclear Dipole Moment: (a.u.)
     X:     0.0000      Y:     0.0000      Z:     3.4862

  Electronic Dipole Moment: (a.u.)
     X:     0.0000      Y:     0.0000      Z:    -5.6970

  Dipole Moment: (a.u.)
     X:     0.0000      Y:     0.0000      Z:    -2.2108     Total:     2.2108

  Dipole Moment: (Debye)
     X:     0.0000      Y:     0.0000      Z:    -5.6192     Total:     5.6192

*** tstop() called on odysseus at Tue Jun 27 22:53:41 2017
Module time:
	user time   =      15.88 seconds =       0.26 minutes
	system time =       0.26 seconds =       0.00 minutes
	total time  =          5 seconds =       0.08 minutes
Total time:
	user time   =     110.03 seconds =       1.83 minutes
	system time =       1.93 seconds =       0.03 minutes
	total time  =         33 seconds =       0.55 minutes

*** tstart() called on odysseus
*** at Tue Jun 27 22:53:41 2017

         ------------------------------------------------------------
                                   SCF GRAD
                          Rob Parrish, Justin Turney,
                       Andy Simmonett, and Alex Sokolov
         ------------------------------------------------------------

  ==> Geometry <==

    Molecular point group: c2v
    Full point group: C_inf_v

    Geometry (in Angstrom), charge = 2, multiplicity = 5:

       Center              X                  Y                   Z               Mass
    ------------   -----------------  -----------------  -----------------  -----------------
           V          0.000000000000     0.000000000000    -1.044482082985    50.943959507000
          CL          0.000000000000     0.000000000000     1.521641371116    34.968852682000

  Nuclear repulsion =   80.630683698397490

  ==> Basis Set <==

  Basis Set: DEF2-SV(P)
    Blend: DEF2-SV(P)
    Number of shells: 18
    Number of basis function: 42
    Number of Cartesian functions: 45
    Spherical Harmonics?: true
    Max angular momentum: 2

  ==> DirectJKGrad: Integral-Direct SCF Gradients <==

    Gradient:                    1
    J tasked:                  Yes
    K tasked:                   No
    wK tasked:                  No
    Integrals threads:           4
    Schwarz Cutoff:          0E+00

  ==> DFT Potential <==

   => B97-D2P4 Composite Functional <=

    B97-D Pure-GGA Exchange-Correlation Functional

    S. Grimme, J. Comput. Chem., 27, 1787-1799, 2006

    Points   =           5000
    Deriv    =              1
    GGA      =           TRUE
    Meta     =          FALSE

    X_LRC        =          FALSE
    X_Hybrid     =          FALSE
    X_Alpha      =   0.000000E+00
    X_Omega      =   0.000000E+00
    C_LRC        =          FALSE
    C_Hybrid     =          FALSE
    C_Alpha      =   0.000000E+00
    C_Omega      =   0.000000E+00

   => Exchange Functionals <=

    1.0000 B97-D_X

   => Correlation Functionals <=

    1.0000 B97-D_C

   => Molecular Quadrature <=

    Radial Scheme    =       TREUTLER
    Pruning Scheme   =           FLAT
    Nuclear Scheme   =       TREUTLER

    BS radius alpha  =              1
    Pruning alpha    =              1
    Radial Points    =             75
    Spherical Points =            302
    Total Points     =          45300
    Total Blocks     =             46
    Max Points       =           2888
    Max Functions    =             41

  -Total Gradient:
     Atom            X                  Y                   Z
    ------   -----------------  -----------------  -----------------
       1        0.000000000000    -0.000000000000    -0.000031030808
       2       -0.000000000000     0.000000000000    -0.000022953933

*** tstop() called on odysseus at Tue Jun 27 22:53:42 2017
Module time:
	user time   =       2.61 seconds =       0.04 minutes
	system time =       0.02 seconds =       0.00 minutes
	total time  =          1 seconds =       0.02 minutes
Total time:
	user time   =     112.65 seconds =       1.88 minutes
	system time =       1.95 seconds =       0.03 minutes
	total time  =         34 seconds =       0.57 minutes

			-----------------------------------------
			 OPTKING 2.0: for geometry optimizations
			  - R.A. King,  Bethel University
			-----------------------------------------

	Previous internal coordinate definitions found.
	---Fragment 1 Geometry and Gradient---
	 V           0.0000000000        0.0000000000       -1.9737850875
	 CL          0.0000000000        0.0000000000        2.8754854639
	             0.0000000000       -0.0000000000       -0.0000310308
	            -0.0000000000        0.0000000000       -0.0000229539

	---Fragment 1 Intrafragment Coordinates---
	 - Coordinate -           - BOHR/RAD -       - ANG/DEG -
	 R(1,2)           =         4.849271	       2.566123

	Current energy   :     -1403.3108840858

	Energy change for the previous step:
		Projected    :         0.0000633730
		Actual       :        -0.0000021255

	Performing BFGS update.
	Previous computed or guess Hessian on step 1.
	Steps to be used in Hessian update: 4 3
	Taking RFO optimization step.
	Going to follow RFO solution 1.
	Using RFO vector 1.
	Norm of target step-size    0.00009
	Projected energy change by RFO approximation:         0.0000000040

	Back-transformation to cartesian coordinates...
	Successfully converged to displaced geometry.

	--- Internal Coordinate Step in ANG or DEG, aJ/ANG or AJ/DEG ---
	 ---------------------------------------------------------------------------
	   Coordinate                Previous        Force       Change         New
	   ----------                --------       ------       ------       ------
	    1 R(1,2)          =      2.566123    -0.000033    -0.000050     2.566074
	 ---------------------------------------------------------------------------
	Successfully symmetrized geometry.

  ==> Convergence Check <==

  Measures of convergence in internal coordinates in au.
  Criteria marked as inactive (o), active & met (*), and active & unmet ( ).
  ---------------------------------------------------------------------------------------------
   Step     Total Energy     Delta E     MAX Force     RMS Force      MAX Disp      RMS Disp
  ---------------------------------------------------------------------------------------------
    Convergence Criteria    1.00e-06 *    3.00e-04 *             o    1.20e-03 *             o
  ---------------------------------------------------------------------------------------------
      5   -1403.31088409   -2.13e-06      4.04e-06 *    4.04e-06 o    9.41e-05 *    9.41e-05 o  ~
  ---------------------------------------------------------------------------------------------

  **** Optimization is complete! (in 5 steps) ****

  ==> Optimization Summary <==

  Measures of convergence in internal coordinates in au.
  --------------------------------------------------------------------------------------------------------------- ~
   Step         Total Energy             Delta E       MAX Force       RMS Force        MAX Disp        RMS Disp  ~
  --------------------------------------------------------------------------------------------------------------- ~
      1   -1403.303162334523  -1403.303162334523      0.01290286      0.01290286      0.31338382      0.31338382  ~
      2   -1403.307126560062     -0.003964225539      0.01193598      0.01193598      0.50000000      0.50000000  ~
      3   -1403.310882667209     -0.003756107147      0.00028412      0.00028412      0.01830806      0.01830806  ~
      4   -1403.310881960304      0.000000706905      0.00051340      0.00051340      0.01178403      0.01178403  ~
      5   -1403.310884085820     -0.000002125517      0.00000404      0.00000404      0.00009407      0.00009407  ~
  --------------------------------------------------------------------------------------------------------------- ~

	Writing optimization data to binary file.
	Final energy is  -1403.3108840858204
	Final (previous) structure:
	Cartesian Geometry (in Angstrom)
	    V     0.0000000000   0.0000000000  -1.0444820830
	   CL     0.0000000000   0.0000000000   1.5216413711
	Saving final (previous) structure.
			--------------------------
			 OPTKING Finished Execution
			--------------------------

    Final optimized geometry and variables:
    Molecular point group: c2v
    Full point group: C_inf_v

    Geometry (in Angstrom), charge = 2, multiplicity = 5:

    V            0.000000000000     0.000000000000    -1.044482082985
    CL           0.000000000000     0.000000000000     1.521641371116

	Cleaning optimization helper files.

*** Psi4 exiting successfully. Buy a developer a beer!
