                               Psi4 1.1 release

  ==> Input File <==

--------------------------------------------------------------------------
# -*- mode: python -*-

from __future__ import print_function

memory 2 gb

molecule dimer {
He           0.000000000000     0.000000000000     0.000
--
He           0.000000000000     0.000000000000     3.000

symmetry c1
units angstrom
no_reorient
no_com
}

set {
    basis aug-cc-pvdz
}

energy('sapt2+3(ccd)dmp2')

print_variables()
--------------------------------------------------------------------------

  //              Dimer HF             //
    Molecular point group: c1
  Charge       = 0
  Multiplicity = 1
  Basis Set: AUG-CC-PVDZ
    Blend: AUG-CC-PVDZ
  Basis Set: (AUG-CC-PVDZ AUX)
    Blend: DEF2-QZVPP-JKFIT
  @DF-RHF Final Energy:    -5.71145929868791
    Total Energy =                         -5.7114592986879114
  Basis Set: (AUG-CC-PVDZ AUX)
    Blend: AUG-CC-PVDZ-RI
	 Reference Energy          =      -5.7114592986879114 [Eh]
	 Singles Energy            =      -0.0000000000000000 [Eh]
	 Same-Spin Energy          =      -0.0000174536893671 [Eh]
	 Opposite-Spin Energy      =      -0.0539389355594393 [Eh]
	 Correlation Energy        =      -0.0539563892488064 [Eh]
	 Total Energy              =      -5.7654156879367173 [Eh]
	 SCS Total Energy          =      -5.7761918392556941 [Eh]
  //            Monomer A HF           //
    Molecular point group: c1
  Multiplicity = 1
  Basis Set: AUG-CC-PVDZ
    Blend: AUG-CC-PVDZ
  Basis Set: (AUG-CC-PVDZ AUX)
    Blend: DEF2-QZVPP-JKFIT
  @DF-RHF Final Energy:    -2.85574077371934
    Total Energy =                         -2.8557407737193437
  Basis Set: (AUG-CC-PVDZ AUX)
	 Singles Energy            =      -0.0000000000000000 [Eh]
	 Same-Spin Energy          =       0.0000000000000000 [Eh]
	 Opposite-Spin Energy      =      -0.0269608599328314 [Eh]
	 Correlation Energy        =      -0.0269608599328314 [Eh]
	 Total Energy              =      -2.8827016336521751 [Eh]
	 SCS Total Energy          =      -2.8880938056387415 [Eh]
  //            Monomer B HF           //
    Molecular point group: c1

    Geometry (in Angstrom), charge = 0, multiplicity = 1:

       Center              X                  Y                   Z               Mass
    ------------   -----------------  -----------------  -----------------  -----------------
          HE(Gh)      0.000000000000     0.000000000000     0.000000000000     4.002603254150
          HE          0.000000000000     0.000000000000     3.000000000000     4.002603254150

  Charge       = 0
  Multiplicity = 1
  Basis Set: AUG-CC-PVDZ
    Blend: AUG-CC-PVDZ
  Basis Set: (AUG-CC-PVDZ AUX)
    Blend: DEF2-QZVPP-JKFIT

    Orbital Energies (a.u.)
    -----------------------

    Doubly Occupied:

       1A     -0.917143

  @DF-RHF Final Energy:    -2.85574077371935

   => Energetics <=

    Nuclear Repulsion Energy =              0.0000000000000000
    One-Electron Energy =                  -3.8771945830359726
    Two-Electron Energy =                   1.0214538093166272
    DFT Exchange-Correlation Energy =       0.0000000000000000
    Empirical Dispersion Energy =           0.0000000000000000
    PCM Polarization Energy =               0.0000000000000000
    EFP Energy =                            0.0000000000000000
    Total Energy =                         -2.8557407737193454
  Basis Set: (AUG-CC-PVDZ AUX)
    Blend: AUG-CC-PVDZ-RI
	 Reference Energy          =      -2.8557407737193454 [Eh]
	 Singles Energy            =      -0.0000000000000000 [Eh]
	 Same-Spin Energy          =       0.0000000000000000 [Eh]
	 Opposite-Spin Energy      =      -0.0269608599328312 [Eh]
	 Correlation Energy        =      -0.0269608599328312 [Eh]
	 Total Energy              =      -2.8827016336521765 [Eh]

	 ================> DF-SCS-MP2 Energies <==================
	-----------------------------------------------------------
	 SCS Same-Spin Scale       =       0.3333333333333333 [-]
	 SCS Opposite-Spin Scale   =       1.2000000000000000 [-]
	 SCS Same-Spin Energy      =       0.0000000000000000 [Eh]
	 SCS Opposite-Spin Energy  =      -0.0323530319193974 [Eh]
	 SCS Correlation Energy    =      -0.0323530319193974 [Eh]
	 SCS Total Energy          =      -2.8880938056387429 [Eh]
	-----------------------------------------------------------

    SAPT Results
  --------------------------------------------------------------------------------------------------------
    Electrostatics                 -0.07707189 [mEh]      -0.04836334 [kcal/mol]      -0.20235225 [kJ/mol]
      Elst10,r                     -0.07732446 [mEh]      -0.04852183 [kcal/mol]      -0.20301538 [kJ/mol]
      Elst12,r                      0.00009115 [mEh]       0.00005720 [kcal/mol]       0.00023931 [kJ/mol]
      Elst13,r                      0.00016142 [mEh]       0.00010129 [kcal/mol]       0.00042381 [kJ/mol]

    Exchange                        0.03536564 [mEh]       0.02219227 [kcal/mol]       0.09285249 [kJ/mol]
      Exch10                        0.03260452 [mEh]       0.02045965 [kcal/mol]       0.08560317 [kJ/mol]
      Exch10(S^2)                   0.03260383 [mEh]       0.02045921 [kcal/mol]       0.08560136 [kJ/mol]
      Exch11(S^2)                   0.00047664 [mEh]       0.00029910 [kcal/mol]       0.00125142 [kJ/mol]
      Exch12(S^2)                   0.00228448 [mEh]       0.00143353 [kcal/mol]       0.00599790 [kJ/mol]

    Induction                       0.06504144 [mEh]       0.04081412 [kcal/mol]       0.17076630 [kJ/mol]
      Ind20,r                      -0.00064733 [mEh]      -0.00040620 [kcal/mol]      -0.00169956 [kJ/mol]
      Ind30,r                      -0.00033774 [mEh]      -0.00021193 [kcal/mol]      -0.00088673 [kJ/mol]
      Ind22                        -0.00006518 [mEh]      -0.00004090 [kcal/mol]      -0.00017112 [kJ/mol]
      Exch-Ind20,r                  0.00057955 [mEh]       0.00036367 [kcal/mol]       0.00152161 [kJ/mol]
      Exch-Ind30,r                  0.00024194 [mEh]       0.00015182 [kcal/mol]       0.00063520 [kJ/mol]
      Exch-Ind22                    0.00005835 [mEh]       0.00003662 [kcal/mol]       0.00015320 [kJ/mol]
      delta HF,r (2)                0.06703647 [mEh]       0.04206602 [kcal/mol]       0.17600425 [kJ/mol]
      delta HF,r (3)                0.06713227 [mEh]       0.04212614 [kcal/mol]       0.17625577 [kJ/mol]
      delta MP2,r (2)              -0.00199717 [mEh]      -0.00125324 [kcal/mol]      -0.00524356 [kJ/mol]
      delta MP2,r (3)              -0.00192043 [mEh]      -0.00120509 [kcal/mol]      -0.00504209 [kJ/mol]

    Dispersion                     -0.04532100 [mEh]      -0.02843936 [kcal/mol]      -0.11899028 [kJ/mol]
      Disp20                       -0.03592163 [mEh]      -0.02254116 [kcal/mol]      -0.09431224 [kJ/mol]
      Disp30                       -0.00006299 [mEh]      -0.00003953 [kcal/mol]      -0.00016538 [kJ/mol]
      Disp21                       -0.00657459 [mEh]      -0.00412562 [kcal/mol]      -0.01726158 [kJ/mol]
      Disp22 (SDQ)                 -0.00081870 [mEh]      -0.00051374 [kcal/mol]      -0.00214950 [kJ/mol]
      Disp22 (T)                   -0.00142575 [mEh]      -0.00089467 [kcal/mol]      -0.00374331 [kJ/mol]
      Est. Disp22 (T)              -0.00154951 [mEh]      -0.00097233 [kcal/mol]      -0.00406823 [kJ/mol]
      Disp2 (CCD)                  -0.04207025 [mEh]      -0.02639948 [kcal/mol]      -0.11045544 [kJ/mol]
      Disp22 (S) (CCD)             -0.00092424 [mEh]      -0.00057997 [kcal/mol]      -0.00242660 [kJ/mol]
      Disp22 (T) (CCD)             -0.00238640 [mEh]      -0.00149749 [kcal/mol]      -0.00626548 [kJ/mol]
      Est. Disp22 (T) (CCD)        -0.00259354 [mEh]      -0.00162747 [kcal/mol]      -0.00680933 [kJ/mol]
      Exch-Disp20                   0.00040397 [mEh]       0.00025349 [kcal/mol]       0.00106061 [kJ/mol]
      Exch-Disp30                   0.00000279 [mEh]       0.00000175 [kcal/mol]       0.00000734 [kJ/mol]
      Ind-Disp30                   -0.00025586 [mEh]      -0.00016055 [kcal/mol]      -0.00067176 [kJ/mol]
      Exch-Ind-Disp30               0.00017912 [mEh]       0.00011240 [kcal/mol]       0.00047029 [kJ/mol]

  Total HF                          0.02224875 [mEh]       0.01396130 [kcal/mol]       0.05841410 [kJ/mol]
  Total SAPT0                      -0.01326891 [mEh]      -0.00832637 [kcal/mol]      -0.03483753 [kJ/mol]
  Total SAPT2                      -0.01042347 [mEh]      -0.00654082 [kcal/mol]      -0.02736681 [kJ/mol]
  Total SAPT2+                     -0.01936626 [mEh]      -0.01215251 [kcal/mol]      -0.05084612 [kJ/mol]
  Total SAPT2+(3)                  -0.01926783 [mEh]      -0.01209075 [kcal/mol]      -0.05058769 [kJ/mol]
  Total SAPT2+3                    -0.01934177 [mEh]      -0.01213715 [kcal/mol]      -0.05078182 [kJ/mol]
  Total SAPT2+dMP2                 -0.02136343 [mEh]      -0.01340575 [kcal/mol]      -0.05608968 [kJ/mol]
  Total SAPT2+(3)dMP2              -0.02126500 [mEh]      -0.01334399 [kcal/mol]      -0.05583125 [kJ/mol]
  Total SAPT2+3dMP2                -0.02126220 [mEh]      -0.01334223 [kcal/mol]      -0.05582391 [kJ/mol]
  Total SAPT2+(CCD)                -0.02008987 [mEh]      -0.01260658 [kcal/mol]      -0.05274594 [kJ/mol]
  Total SAPT2+(3)(CCD)             -0.01999144 [mEh]      -0.01254482 [kcal/mol]      -0.05248752 [kJ/mol]
  Total SAPT2+3(CCD)               -0.02006538 [mEh]      -0.01259122 [kcal/mol]      -0.05268165 [kJ/mol]
  Total SAPT2+(CCD)dMP2            -0.02208703 [mEh]      -0.01385982 [kcal/mol]      -0.05798950 [kJ/mol]
  Total SAPT2+(3)(CCD)dMP2         -0.02198860 [mEh]      -0.01379806 [kcal/mol]      -0.05773108 [kJ/mol]
  Total SAPT2+3(CCD)dMP2           -0.02198581 [mEh]      -0.01379630 [kcal/mol]      -0.05772374 [kJ/mol]

  Special recipe for scaled SAPT0 (see Manual):
    Electrostatics sSAPT0          -0.07732446 [mEh]      -0.04852183 [kcal/mol]      -0.20301538 [kJ/mol]
    Exchange sSAPT0                 0.03260452 [mEh]       0.02045965 [kcal/mol]       0.08560317 [kJ/mol]
    Induction sSAPT0                0.06696873 [mEh]       0.04202351 [kcal/mol]       0.17582640 [kJ/mol]
    Dispersion sSAPT0              -0.03551764 [mEh]      -0.02228766 [kcal/mol]      -0.09325156 [kJ/mol]
  Total sSAPT0                     -0.01326885 [mEh]      -0.00832633 [kcal/mol]      -0.03483737 [kJ/mol]
  --------------------------------------------------------------------------------------------------------

*** Psi4 exiting successfully. Buy a developer a beer!
