                               Psi4 1.1 release

  ==> Input File <==

--------------------------------------------------------------------------
# -*- mode: python -*-

from __future__ import print_function

memory 2 gb

molecule dimer {
He           0.000000000000     0.000000000000     0.000
--
He           0.000000000000     0.000000000000     3.000

symmetry c1
units angstrom
no_reorient
no_com
}

set {
    basis aug-cc-pvdz
}

energy('sapt0')

print_variables()
--------------------------------------------------------------------------

  //              Dimer HF             //
    Molecular point group: c1
  Charge       = 0
  Multiplicity = 1
  Basis Set: AUG-CC-PVDZ
    Blend: AUG-CC-PVDZ
  Basis Set: (AUG-CC-PVDZ AUX)
    Blend: DEF2-QZVPP-JKFIT
  @DF-RHF Final Energy:    -5.71145929868791
    Total Energy =                         -5.7114592986879114
  //            Monomer A HF           //
    Molecular point group: c1
  Multiplicity = 1
  Basis Set: AUG-CC-PVDZ
    Blend: AUG-CC-PVDZ
  Basis Set: (AUG-CC-PVDZ AUX)
    Blend: DEF2-QZVPP-JKFIT
  @DF-RHF Final Energy:    -2.85574077371934
    Total Energy =                         -2.8557407737193437
  //            Monomer B HF           //
    Molecular point group: c1

    Geometry (in Angstrom), charge = 0, multiplicity = 1:

       Center              X                  Y                   Z               Mass
    ------------   -----------------  -----------------  -----------------  -----------------
          HE(Gh)      0.000000000000     0.000000000000     0.000000000000     4.002603254150
          HE          0.000000000000     0.000000000000     3.000000000000     4.002603254150

  Charge       = 0
  Multiplicity = 1
  Basis Set: AUG-CC-PVDZ
    Blend: AUG-CC-PVDZ
  Basis Set: (AUG-CC-PVDZ AUX)
    Blend: DEF2-QZVPP-JKFIT

    Orbital Energies (a.u.)
    -----------------------

    Doubly Occupied:

       1A     -0.917143

  @DF-RHF Final Energy:    -2.85574077371935

   => Energetics <=

    Nuclear Repulsion Energy =              0.0000000000000000
    One-Electron Energy =                  -3.8771945830359726
    Two-Electron Energy =                   1.0214538093166272
    DFT Exchange-Correlation Energy =       0.0000000000000000
    Empirical Dispersion Energy =           0.0000000000000000
    PCM Polarization Energy =               0.0000000000000000
    EFP Energy =                            0.0000000000000000
    Total Energy =                         -2.8557407737193454

    SAPT Results
  --------------------------------------------------------------------------------------------------------
    Electrostatics                 -0.07732446 [mEh]      -0.04852183 [kcal/mol]      -0.20301538 [kJ/mol]
      Elst10,r                     -0.07732446 [mEh]      -0.04852183 [kcal/mol]      -0.20301538 [kJ/mol]

    Exchange                        0.03260452 [mEh]       0.02045965 [kcal/mol]       0.08560317 [kJ/mol]
      Exch10                        0.03260452 [mEh]       0.02045965 [kcal/mol]       0.08560317 [kJ/mol]
      Exch10(S^2)                   0.03260383 [mEh]       0.02045921 [kcal/mol]       0.08560136 [kJ/mol]

    Induction                       0.06696869 [mEh]       0.04202349 [kcal/mol]       0.17582631 [kJ/mol]
      Ind20,r                      -0.00064733 [mEh]      -0.00040620 [kcal/mol]      -0.00169956 [kJ/mol]
      Exch-Ind20,r                  0.00057955 [mEh]       0.00036367 [kcal/mol]       0.00152161 [kJ/mol]
      delta HF,r (2)                0.06703647 [mEh]       0.04206602 [kcal/mol]       0.17600425 [kJ/mol]

    Dispersion                     -0.03551766 [mEh]      -0.02228767 [kcal/mol]      -0.09325163 [kJ/mol]
      Disp20                       -0.03592163 [mEh]      -0.02254116 [kcal/mol]      -0.09431224 [kJ/mol]
      Exch-Disp20                   0.00040397 [mEh]       0.00025349 [kcal/mol]       0.00106061 [kJ/mol]
      Disp20 (SS)                  -0.01796081 [mEh]      -0.01127058 [kcal/mol]      -0.04715612 [kJ/mol]
      Disp20 (OS)                  -0.01796081 [mEh]      -0.01127058 [kcal/mol]      -0.04715612 [kJ/mol]
      Exch-Disp20 (SS)              0.00023867 [mEh]       0.00014977 [kcal/mol]       0.00062662 [kJ/mol]
      Exch-Disp20 (OS)              0.00016530 [mEh]       0.00010373 [kcal/mol]       0.00043400 [kJ/mol]

  Total HF                          0.02224875 [mEh]       0.01396130 [kcal/mol]       0.05841410 [kJ/mol]
  Total SAPT0                      -0.01326891 [mEh]      -0.00832637 [kcal/mol]      -0.03483753 [kJ/mol]

  Special recipe for scaled SAPT0 (see Manual):
    Electrostatics sSAPT0          -0.07732446 [mEh]      -0.04852183 [kcal/mol]      -0.20301538 [kJ/mol]
    Exchange sSAPT0                 0.03260452 [mEh]       0.02045965 [kcal/mol]       0.08560317 [kJ/mol]
    Induction sSAPT0                0.06696873 [mEh]       0.04202351 [kcal/mol]       0.17582640 [kJ/mol]
    Dispersion sSAPT0              -0.03551764 [mEh]      -0.02228766 [kcal/mol]      -0.09325156 [kJ/mol]
  Total sSAPT0                     -0.01326885 [mEh]      -0.00832633 [kcal/mol]      -0.03483737 [kJ/mol]
  --------------------------------------------------------------------------------------------------------

*** Psi4 exiting successfully. Buy a developer a beer!
