                               Psi4 1.1 release

  ==> Input File <==

--------------------------------------------------------------------------
# -*- mode: python -*-

from __future__ import print_function

memory 2 gb

molecule dimer {
He           0.000000000000     0.000000000000     0.000
--
He           0.000000000000     0.000000000000     7.000

symmetry c1
units angstrom
no_reorient
no_com
}

set {
    basis aug-cc-pvdz
}

energy('sapt2+3(ccd)dmp2')

print_variables()
--------------------------------------------------------------------------

  //              Dimer HF             //
    Molecular point group: c1
  Charge       = 0
  Multiplicity = 1
  Basis Set: AUG-CC-PVDZ
    Blend: AUG-CC-PVDZ
  Basis Set: (AUG-CC-PVDZ AUX)
    Blend: DEF2-QZVPP-JKFIT
  @DF-RHF Final Energy:    -5.71147163286112
    Total Energy =                         -5.7114716328611213
  Basis Set: (AUG-CC-PVDZ AUX)
    Blend: AUG-CC-PVDZ-RI
	 Reference Energy          =      -5.7114716328611213 [Eh]
	 Singles Energy            =      -0.0000000000000000 [Eh]
	 Same-Spin Energy          =      -0.0000001054794648 [Eh]
	 Opposite-Spin Energy      =      -0.0539086036943640 [Eh]
	 Correlation Energy        =      -0.0539087091738288 [Eh]
	 Total Energy              =      -5.7653803420349501 [Eh]
	 SCS Total Energy          =      -5.7761619924541794 [Eh]
  //            Monomer A HF           //
    Molecular point group: c1
  Multiplicity = 1
  Basis Set: AUG-CC-PVDZ
    Blend: AUG-CC-PVDZ
  Basis Set: (AUG-CC-PVDZ AUX)
    Blend: DEF2-QZVPP-JKFIT
  @DF-RHF Final Energy:    -2.85573414427695
    Total Energy =                         -2.8557341442769504
  Basis Set: (AUG-CC-PVDZ AUX)
	 Singles Energy            =      -0.0000000000000000 [Eh]
	 Same-Spin Energy          =       0.0000000000000000 [Eh]
	 Opposite-Spin Energy      =      -0.0269537235408597 [Eh]
	 Correlation Energy        =      -0.0269537235408597 [Eh]
	 Total Energy              =      -2.8826878678178098 [Eh]
	 SCS Total Energy          =      -2.8880786125259821 [Eh]
  //            Monomer B HF           //
    Molecular point group: c1

    Geometry (in Angstrom), charge = 0, multiplicity = 1:

       Center              X                  Y                   Z               Mass
    ------------   -----------------  -----------------  -----------------  -----------------
          HE(Gh)      0.000000000000     0.000000000000     0.000000000000     4.002603254150
          HE          0.000000000000     0.000000000000     7.000000000000     4.002603254150

  Charge       = 0
  Multiplicity = 1
  Basis Set: AUG-CC-PVDZ
    Blend: AUG-CC-PVDZ
  Basis Set: (AUG-CC-PVDZ AUX)
    Blend: DEF2-QZVPP-JKFIT

    Orbital Energies (a.u.)
    -----------------------

    Doubly Occupied:

       1A     -0.917166

  @DF-RHF Final Energy:    -2.85573414427696

   => Energetics <=

    Nuclear Repulsion Energy =              0.0000000000000000
    One-Electron Energy =                  -3.8771357040650809
    Two-Electron Energy =                   1.0214015597881247
    DFT Exchange-Correlation Energy =       0.0000000000000000
    Empirical Dispersion Energy =           0.0000000000000000
    PCM Polarization Energy =               0.0000000000000000
    EFP Energy =                            0.0000000000000000
    Total Energy =                         -2.8557341442769562
  Basis Set: (AUG-CC-PVDZ AUX)
    Blend: AUG-CC-PVDZ-RI
	 Reference Energy          =      -2.8557341442769562 [Eh]
	 Singles Energy            =      -0.0000000000000000 [Eh]
	 Same-Spin Energy          =       0.0000000000000000 [Eh]
	 Opposite-Spin Energy      =      -0.0269537235408595 [Eh]
	 Correlation Energy        =      -0.0269537235408595 [Eh]
	 Total Energy              =      -2.8826878678178156 [Eh]

	 ================> DF-SCS-MP2 Energies <==================
	-----------------------------------------------------------
	 SCS Same-Spin Scale       =       0.3333333333333333 [-]
	 SCS Opposite-Spin Scale   =       1.2000000000000000 [-]
	 SCS Same-Spin Energy      =       0.0000000000000000 [Eh]
	 SCS Opposite-Spin Energy  =      -0.0323444682490314 [Eh]
	 SCS Correlation Energy    =      -0.0323444682490315 [Eh]
	 SCS Total Energy          =      -2.8880786125259874 [Eh]
	-----------------------------------------------------------

    SAPT Results
  --------------------------------------------------------------------------------------------------------
    Electrostatics                 -0.02832362 [mEh]      -0.01777334 [kcal/mol]      -0.07436366 [kJ/mol]
      Elst10,r                     -0.02863506 [mEh]      -0.01796877 [kcal/mol]      -0.07518135 [kJ/mol]
      Elst12,r                      0.00019885 [mEh]       0.00012478 [kcal/mol]       0.00052208 [kJ/mol]
      Elst13,r                      0.00011259 [mEh]       0.00007065 [kcal/mol]       0.00029561 [kJ/mol]

    Exchange                       -0.00000001 [mEh]      -0.00000000 [kcal/mol]      -0.00000001 [kJ/mol]
      Exch10                       -0.00000000 [mEh]      -0.00000000 [kcal/mol]      -0.00000001 [kJ/mol]
      Exch10(S^2)                  -0.00000000 [mEh]      -0.00000000 [kcal/mol]      -0.00000001 [kJ/mol]
      Exch11(S^2)                   0.00000000 [mEh]       0.00000000 [kcal/mol]       0.00000000 [kJ/mol]
      Exch12(S^2)                  -0.00000000 [mEh]      -0.00000000 [kcal/mol]      -0.00000001 [kJ/mol]

    Induction                       0.02404072 [mEh]       0.01508578 [kcal/mol]       0.06311892 [kJ/mol]
      Ind20,r                      -0.00000000 [mEh]      -0.00000000 [kcal/mol]      -0.00000001 [kJ/mol]
      Ind30,r                      -0.00000000 [mEh]      -0.00000000 [kcal/mol]      -0.00000000 [kJ/mol]
      Ind22                        -0.00000003 [mEh]      -0.00000002 [kcal/mol]      -0.00000007 [kJ/mol]
      Exch-Ind20,r                  0.00000000 [mEh]       0.00000000 [kcal/mol]       0.00000000 [kJ/mol]
      Exch-Ind30,r                  0.00000000 [mEh]       0.00000000 [kcal/mol]       0.00000000 [kJ/mol]
      Exch-Ind22                    0.00000000 [mEh]       0.00000000 [kcal/mol]       0.00000000 [kJ/mol]
      delta HF,r (2)                0.02529076 [mEh]       0.01587019 [kcal/mol]       0.06640088 [kJ/mol]
      delta HF,r (3)                0.02529076 [mEh]       0.01587019 [kcal/mol]       0.06640088 [kJ/mol]
      delta MP2,r (2)              -0.00125000 [mEh]      -0.00078439 [kcal/mol]      -0.00328188 [kJ/mol]
      delta MP2,r (3)              -0.00125000 [mEh]      -0.00078439 [kcal/mol]      -0.00328189 [kJ/mol]

    Dispersion                     -0.00026730 [mEh]      -0.00016773 [kcal/mol]      -0.00070179 [kJ/mol]
      Disp20                       -0.00021091 [mEh]      -0.00013235 [kcal/mol]      -0.00055374 [kJ/mol]
      Disp30                       -0.00000000 [mEh]      -0.00000000 [kcal/mol]      -0.00000000 [kJ/mol]
      Disp21                       -0.00003877 [mEh]      -0.00002433 [kcal/mol]      -0.00010180 [kJ/mol]
      Disp22 (SDQ)                 -0.00000448 [mEh]      -0.00000281 [kcal/mol]      -0.00001177 [kJ/mol]
      Disp22 (T)                   -0.00000915 [mEh]      -0.00000574 [kcal/mol]      -0.00002403 [kJ/mol]
      Est. Disp22 (T)              -0.00000915 [mEh]      -0.00000574 [kcal/mol]      -0.00002403 [kJ/mol]
      Disp2 (CCD)                  -0.00024727 [mEh]      -0.00015516 [kcal/mol]      -0.00064921 [kJ/mol]
      Disp22 (S) (CCD)             -0.00000491 [mEh]      -0.00000308 [kcal/mol]      -0.00001290 [kJ/mol]
      Disp22 (T) (CCD)             -0.00001511 [mEh]      -0.00000948 [kcal/mol]      -0.00003968 [kJ/mol]
      Est. Disp22 (T) (CCD)        -0.00001511 [mEh]      -0.00000948 [kcal/mol]      -0.00003968 [kJ/mol]
      Exch-Disp20                   0.00000000 [mEh]       0.00000000 [kcal/mol]       0.00000000 [kJ/mol]
      Exch-Disp30                  -0.00000000 [mEh]      -0.00000000 [kcal/mol]      -0.00000000 [kJ/mol]
      Ind-Disp30                    0.00000000 [mEh]       0.00000000 [kcal/mol]       0.00000001 [kJ/mol]
      Exch-Ind-Disp30              -0.00000000 [mEh]      -0.00000000 [kcal/mol]      -0.00000000 [kJ/mol]

  Total HF                         -0.00334431 [mEh]      -0.00209858 [kcal/mol]      -0.00878048 [kJ/mol]
  Total SAPT0                      -0.00355522 [mEh]      -0.00223093 [kcal/mol]      -0.00933422 [kJ/mol]
  Total SAPT2                      -0.00335640 [mEh]      -0.00210617 [kcal/mol]      -0.00881222 [kJ/mol]
  Total SAPT2+                     -0.00340881 [mEh]      -0.00213906 [kcal/mol]      -0.00894982 [kJ/mol]
  Total SAPT2+(3)                  -0.00329621 [mEh]      -0.00206841 [kcal/mol]      -0.00865421 [kJ/mol]
  Total SAPT2+3                    -0.00329621 [mEh]      -0.00206840 [kcal/mol]      -0.00865421 [kJ/mol]
  Total SAPT2+dMP2                 -0.00465881 [mEh]      -0.00292345 [kcal/mol]      -0.01223170 [kJ/mol]
  Total SAPT2+(3)dMP2              -0.00454622 [mEh]      -0.00285279 [kcal/mol]      -0.01193609 [kJ/mol]
  Total SAPT2+3dMP2                -0.00454622 [mEh]      -0.00285279 [kcal/mol]      -0.01193609 [kJ/mol]
  Total SAPT2+(CCD)                -0.00341279 [mEh]      -0.00214156 [kcal/mol]      -0.00896027 [kJ/mol]
  Total SAPT2+(3)(CCD)             -0.00330019 [mEh]      -0.00207090 [kcal/mol]      -0.00866466 [kJ/mol]
  Total SAPT2+3(CCD)               -0.00330019 [mEh]      -0.00207090 [kcal/mol]      -0.00866465 [kJ/mol]
  Total SAPT2+(CCD)dMP2            -0.00466279 [mEh]      -0.00292594 [kcal/mol]      -0.01224215 [kJ/mol]
  Total SAPT2+(3)(CCD)dMP2         -0.00455020 [mEh]      -0.00285529 [kcal/mol]      -0.01194654 [kJ/mol]
  Total SAPT2+3(CCD)dMP2           -0.00455020 [mEh]      -0.00285529 [kcal/mol]      -0.01194654 [kJ/mol]

  Special recipe for scaled SAPT0 (see Manual):
    Electrostatics sSAPT0          -0.02863506 [mEh]      -0.01796877 [kcal/mol]      -0.07518135 [kJ/mol]
    Exchange sSAPT0                -0.00000000 [mEh]      -0.00000000 [kcal/mol]      -0.00000001 [kJ/mol]
    Induction sSAPT0                0.02529075 [mEh]       0.01587019 [kcal/mol]       0.06640087 [kJ/mol]
    Dispersion sSAPT0              -0.00021091 [mEh]      -0.00013235 [kcal/mol]      -0.00055374 [kJ/mol]
  Total sSAPT0                     -0.00355522 [mEh]      -0.00223093 [kcal/mol]      -0.00933422 [kJ/mol]
  --------------------------------------------------------------------------------------------------------

*** Psi4 exiting successfully. Buy a developer a beer!
