                               Psi4 1.1 release

  ==> Input File <==

--------------------------------------------------------------------------
# -*- mode: python -*-

from __future__ import print_function

memory 2 gb

molecule dimer {
He           0.000000000000     0.000000000000     0.000
--
He           0.000000000000     0.000000000000     7.000

symmetry c1
units angstrom
no_reorient
no_com
}

set {
    basis aug-cc-pvdz
}

energy('sapt0')

print_variables()
--------------------------------------------------------------------------

  //              Dimer HF             //
    Molecular point group: c1
  Charge       = 0
  Multiplicity = 1
  Basis Set: AUG-CC-PVDZ
    Blend: AUG-CC-PVDZ
  Basis Set: (AUG-CC-PVDZ AUX)
    Blend: DEF2-QZVPP-JKFIT
  @DF-RHF Final Energy:    -5.71147163286112
    Total Energy =                         -5.7114716328611213
  //            Monomer A HF           //
    Molecular point group: c1
  Multiplicity = 1
  Basis Set: AUG-CC-PVDZ
    Blend: AUG-CC-PVDZ
  Basis Set: (AUG-CC-PVDZ AUX)
    Blend: DEF2-QZVPP-JKFIT
  @DF-RHF Final Energy:    -2.85573414427695
    Total Energy =                         -2.8557341442769504
  //            Monomer B HF           //
    Molecular point group: c1

    Geometry (in Angstrom), charge = 0, multiplicity = 1:

       Center              X                  Y                   Z               Mass
    ------------   -----------------  -----------------  -----------------  -----------------
          HE(Gh)      0.000000000000     0.000000000000     0.000000000000     4.002603254150
          HE          0.000000000000     0.000000000000     7.000000000000     4.002603254150

  Charge       = 0
  Multiplicity = 1
  Basis Set: AUG-CC-PVDZ
    Blend: AUG-CC-PVDZ
  Basis Set: (AUG-CC-PVDZ AUX)
    Blend: DEF2-QZVPP-JKFIT

    Orbital Energies (a.u.)
    -----------------------

    Doubly Occupied:

       1A     -0.917166

  @DF-RHF Final Energy:    -2.85573414427696

   => Energetics <=

    Nuclear Repulsion Energy =              0.0000000000000000
    One-Electron Energy =                  -3.8771357040650809
    Two-Electron Energy =                   1.0214015597881247
    DFT Exchange-Correlation Energy =       0.0000000000000000
    Empirical Dispersion Energy =           0.0000000000000000
    PCM Polarization Energy =               0.0000000000000000
    EFP Energy =                            0.0000000000000000
    Total Energy =                         -2.8557341442769562

    SAPT Results
  --------------------------------------------------------------------------------------------------------
    Electrostatics                 -0.02863506 [mEh]      -0.01796877 [kcal/mol]      -0.07518135 [kJ/mol]
      Elst10,r                     -0.02863506 [mEh]      -0.01796877 [kcal/mol]      -0.07518135 [kJ/mol]

    Exchange                       -0.00000000 [mEh]      -0.00000000 [kcal/mol]      -0.00000001 [kJ/mol]
      Exch10                       -0.00000000 [mEh]      -0.00000000 [kcal/mol]      -0.00000001 [kJ/mol]
      Exch10(S^2)                  -0.00000000 [mEh]      -0.00000000 [kcal/mol]      -0.00000001 [kJ/mol]

    Induction                       0.02529075 [mEh]       0.01587019 [kcal/mol]       0.06640087 [kJ/mol]
      Ind20,r                      -0.00000000 [mEh]      -0.00000000 [kcal/mol]      -0.00000001 [kJ/mol]
      Exch-Ind20,r                  0.00000000 [mEh]       0.00000000 [kcal/mol]       0.00000000 [kJ/mol]
      delta HF,r (2)                0.02529076 [mEh]       0.01587019 [kcal/mol]       0.06640088 [kJ/mol]

    Dispersion                     -0.00021091 [mEh]      -0.00013235 [kcal/mol]      -0.00055374 [kJ/mol]
      Disp20                       -0.00021091 [mEh]      -0.00013235 [kcal/mol]      -0.00055374 [kJ/mol]
      Exch-Disp20                   0.00000000 [mEh]       0.00000000 [kcal/mol]       0.00000000 [kJ/mol]
      Disp20 (SS)                  -0.00010545 [mEh]      -0.00006617 [kcal/mol]      -0.00027687 [kJ/mol]
      Disp20 (OS)                  -0.00010545 [mEh]      -0.00006617 [kcal/mol]      -0.00027687 [kJ/mol]
      Exch-Disp20 (SS)              0.00000000 [mEh]       0.00000000 [kcal/mol]       0.00000000 [kJ/mol]
      Exch-Disp20 (OS)              0.00000000 [mEh]       0.00000000 [kcal/mol]       0.00000000 [kJ/mol]

  Total HF                         -0.00334431 [mEh]      -0.00209858 [kcal/mol]      -0.00878048 [kJ/mol]
  Total SAPT0                      -0.00355522 [mEh]      -0.00223093 [kcal/mol]      -0.00933422 [kJ/mol]

  Special recipe for scaled SAPT0 (see Manual):
    Electrostatics sSAPT0          -0.02863506 [mEh]      -0.01796877 [kcal/mol]      -0.07518135 [kJ/mol]
    Exchange sSAPT0                -0.00000000 [mEh]      -0.00000000 [kcal/mol]      -0.00000001 [kJ/mol]
    Induction sSAPT0                0.02529075 [mEh]       0.01587019 [kcal/mol]       0.06640087 [kJ/mol]
    Dispersion sSAPT0              -0.00021091 [mEh]      -0.00013235 [kcal/mol]      -0.00055374 [kJ/mol]
  Total sSAPT0                     -0.00355522 [mEh]      -0.00223093 [kcal/mol]      -0.00933422 [kJ/mol]
  --------------------------------------------------------------------------------------------------------

*** Psi4 exiting successfully. Buy a developer a beer!
